# vtk DataFile Version 2.0
Written using VisIt writer
ASCII
DATASET STRUCTURED_GRID
DIMENSIONS 51 51 1
POINTS 2601 float
  4.795302450657e-01  -7.686818484217e-03   0.000000000000e+00   5.203413367271e-01  -8.341015316546e-03   0.000000000000e+00   5.611523985863e-01  -8.995212614536e-03   0.000000000000e+00 
  6.019634604454e-01  -9.649409912527e-03   0.000000000000e+00   6.427745819092e-01  -1.030360721052e-02   0.000000000000e+00   6.835856437683e-01  -1.095780450851e-02   0.000000000000e+00 
  7.243967056274e-01  -1.161200180650e-02   0.000000000000e+00   7.652078270912e-01  -1.226619910449e-02   0.000000000000e+00   8.060188889503e-01  -1.292039733380e-02   0.000000000000e+00 
  8.468300104141e-01  -1.357459463179e-02   0.000000000000e+00   8.876410722733e-01  -1.422879192978e-02   0.000000000000e+00   9.284521341324e-01  -1.488298922777e-02   0.000000000000e+00 
  9.692632555962e-01  -1.553718652576e-02   0.000000000000e+00   1.010074257851e+00  -1.619138382375e-02   0.000000000000e+00   1.050885438919e+00  -1.684558019042e-02   0.000000000000e+00 
  1.091696500778e+00  -1.749977841973e-02   0.000000000000e+00   1.132507562637e+00  -1.815397478640e-02   0.000000000000e+00   1.173318624496e+00  -1.880817301571e-02   0.000000000000e+00 
  1.214129686356e+00  -1.946236938238e-02   0.000000000000e+00   1.254940867424e+00  -2.011656761169e-02   0.000000000000e+00   1.295751929283e+00  -2.077076397836e-02   0.000000000000e+00 
  1.336562991142e+00  -2.142496220767e-02   0.000000000000e+00   1.377374053001e+00  -2.207915857434e-02   0.000000000000e+00   1.418185114861e+00  -2.273335680366e-02   0.000000000000e+00 
  1.458996176720e+00  -2.338755317032e-02   0.000000000000e+00   1.499807357788e+00  -2.404175139964e-02   0.000000000000e+00   1.540618419647e+00  -2.469594776630e-02   0.000000000000e+00 
  1.581429481506e+00  -2.535014599562e-02   0.000000000000e+00   1.622240543365e+00  -2.600434236228e-02   0.000000000000e+00   1.663051605225e+00  -2.665854059160e-02   0.000000000000e+00 
  1.703862786293e+00  -2.731273695827e-02   0.000000000000e+00   1.744673848152e+00  -2.796693518758e-02   0.000000000000e+00   1.785484910011e+00  -2.862113155425e-02   0.000000000000e+00 
  1.826295971870e+00  -2.927532978356e-02   0.000000000000e+00   1.867107033730e+00  -2.992952615023e-02   0.000000000000e+00   1.907918095589e+00  -3.058372437954e-02   0.000000000000e+00 
  1.948729276657e+00  -3.123792074621e-02   0.000000000000e+00   1.989540338516e+00  -3.189211711287e-02   0.000000000000e+00   2.030351400375e+00  -3.254631534219e-02   0.000000000000e+00 
  2.071162462234e+00  -3.320051357150e-02   0.000000000000e+00   2.111973524094e+00  -3.385471180081e-02   0.000000000000e+00   2.152784585953e+00  -3.450890630484e-02   0.000000000000e+00 
  2.193595647812e+00  -3.516310453415e-02   0.000000000000e+00   2.234406709671e+00  -3.581730276346e-02   0.000000000000e+00   2.275218009949e+00  -3.647150099277e-02   0.000000000000e+00 
  2.316029071808e+00  -3.712569549680e-02   0.000000000000e+00   2.356840133667e+00  -3.777989372611e-02   0.000000000000e+00   2.397651195526e+00  -3.843409195542e-02   0.000000000000e+00 
  2.438462257385e+00  -3.908829018474e-02   0.000000000000e+00   2.479273319244e+00  -3.974248841405e-02   0.000000000000e+00   2.520084381104e+00  -4.039668291807e-02   0.000000000000e+00 
  4.795302450657e-01   7.686818484217e-03   0.000000000000e+00   5.203413367271e-01   8.341015316546e-03   0.000000000000e+00   5.611523985863e-01   8.995212614536e-03   0.000000000000e+00 
  6.019634604454e-01   9.649409912527e-03   0.000000000000e+00   6.427745819092e-01   1.030360721052e-02   0.000000000000e+00   6.835856437683e-01   1.095780450851e-02   0.000000000000e+00 
  7.243967056274e-01   1.161200180650e-02   0.000000000000e+00   7.652078270912e-01   1.226619910449e-02   0.000000000000e+00   8.060188889503e-01   1.292039733380e-02   0.000000000000e+00 
  8.468300104141e-01   1.357459463179e-02   0.000000000000e+00   8.876410722733e-01   1.422879192978e-02   0.000000000000e+00   9.284521341324e-01   1.488298922777e-02   0.000000000000e+00 
  9.692632555962e-01   1.553718652576e-02   0.000000000000e+00   1.010074257851e+00   1.619138382375e-02   0.000000000000e+00   1.050885438919e+00   1.684558019042e-02   0.000000000000e+00 
  1.091696500778e+00   1.749977841973e-02   0.000000000000e+00   1.132507562637e+00   1.815397478640e-02   0.000000000000e+00   1.173318624496e+00   1.880817301571e-02   0.000000000000e+00 
  1.214129686356e+00   1.946236938238e-02   0.000000000000e+00   1.254940867424e+00   2.011656761169e-02   0.000000000000e+00   1.295751929283e+00   2.077076397836e-02   0.000000000000e+00 
  1.336562991142e+00   2.142496220767e-02   0.000000000000e+00   1.377374053001e+00   2.207915857434e-02   0.000000000000e+00   1.418185114861e+00   2.273335680366e-02   0.000000000000e+00 
  1.458996176720e+00   2.338755317032e-02   0.000000000000e+00   1.499807357788e+00   2.404175139964e-02   0.000000000000e+00   1.540618419647e+00   2.469594776630e-02   0.000000000000e+00 
  1.581429481506e+00   2.535014599562e-02   0.000000000000e+00   1.622240543365e+00   2.600434236228e-02   0.000000000000e+00   1.663051605225e+00   2.665854059160e-02   0.000000000000e+00 
  1.703862786293e+00   2.731273695827e-02   0.000000000000e+00   1.744673848152e+00   2.796693518758e-02   0.000000000000e+00   1.785484910011e+00   2.862113155425e-02   0.000000000000e+00 
  1.826295971870e+00   2.927532978356e-02   0.000000000000e+00   1.867107033730e+00   2.992952615023e-02   0.000000000000e+00   1.907918095589e+00   3.058372437954e-02   0.000000000000e+00 
  1.948729276657e+00   3.123792074621e-02   0.000000000000e+00   1.989540338516e+00   3.189211711287e-02   0.000000000000e+00   2.030351400375e+00   3.254631534219e-02   0.000000000000e+00 
  2.071162462234e+00   3.320051357150e-02   0.000000000000e+00   2.111973524094e+00   3.385471180081e-02   0.000000000000e+00   2.152784585953e+00   3.450890630484e-02   0.000000000000e+00 
  2.193595647812e+00   3.516310453415e-02   0.000000000000e+00   2.234406709671e+00   3.581730276346e-02   0.000000000000e+00   2.275218009949e+00   3.647150099277e-02   0.000000000000e+00 
  2.316029071808e+00   3.712569549680e-02   0.000000000000e+00   2.356840133667e+00   3.777989372611e-02   0.000000000000e+00   2.397651195526e+00   3.843409195542e-02   0.000000000000e+00 
  2.438462257385e+00   3.908829018474e-02   0.000000000000e+00   2.479273319244e+00   3.974248841405e-02   0.000000000000e+00   2.520084381104e+00   4.039668291807e-02   0.000000000000e+00 
  4.790374934673e-01   2.305255644023e-02   0.000000000000e+00   5.198066234589e-01   2.501447685063e-02   0.000000000000e+00   5.605757832527e-01   2.697639539838e-02   0.000000000000e+00 
  6.013449430466e-01   2.893831580877e-02   0.000000000000e+00   6.421140432358e-01   3.090023435652e-02   0.000000000000e+00   6.828832030296e-01   3.286215662956e-02   0.000000000000e+00 
  7.236523628235e-01   3.482407331467e-02   0.000000000000e+00   7.644215226173e-01   3.678599372506e-02   0.000000000000e+00   8.051906824112e-01   3.874791413546e-02   0.000000000000e+00 
  8.459597826004e-01   4.070983454585e-02   0.000000000000e+00   8.867289423943e-01   4.267175495625e-02   0.000000000000e+00   9.274981021881e-01   4.463367164135e-02   0.000000000000e+00 
  9.682672619820e-01   4.659559205174e-02   0.000000000000e+00   1.009036421776e+00   4.855751246214e-02   0.000000000000e+00   1.049805521965e+00   5.051943287253e-02   0.000000000000e+00 
  1.090574741364e+00   5.248135328293e-02   0.000000000000e+00   1.131343841553e+00   5.444326996803e-02   0.000000000000e+00   1.172112941742e+00   5.640519037843e-02   0.000000000000e+00 
  1.212882161140e+00   5.836711078882e-02   0.000000000000e+00   1.253651261330e+00   6.032903119922e-02   0.000000000000e+00   1.294420480728e+00   6.229095160961e-02   0.000000000000e+00 
  1.335189580917e+00   6.425286829472e-02   0.000000000000e+00   1.375958681107e+00   6.621479243040e-02   0.000000000000e+00   1.416727900505e+00   6.817670911551e-02   0.000000000000e+00 
  1.457497000694e+00   7.013862580061e-02   0.000000000000e+00   1.498266220093e+00   7.210054993629e-02   0.000000000000e+00   1.539035320282e+00   7.406246662140e-02   0.000000000000e+00 
  1.579804420471e+00   7.602439075708e-02   0.000000000000e+00   1.620573639870e+00   7.798630744219e-02   0.000000000000e+00   1.661342740059e+00   7.994822412729e-02   0.000000000000e+00 
  1.702111959457e+00   8.191014826298e-02   0.000000000000e+00   1.742881059647e+00   8.387206494808e-02   0.000000000000e+00   1.783650159836e+00   8.583398908377e-02   0.000000000000e+00 
  1.824419379234e+00   8.779590576887e-02   0.000000000000e+00   1.865188479424e+00   8.975782990456e-02   0.000000000000e+00   1.905957698822e+00   9.171974658966e-02   0.000000000000e+00 
  1.946726799011e+00   9.368166327477e-02   0.000000000000e+00   1.987495899200e+00   9.564358741045e-02   0.000000000000e+00   2.028264999390e+00   9.760550409555e-02   0.000000000000e+00 
  2.069034337997e+00   9.956742823124e-02   0.000000000000e+00   2.109803438187e+00   1.015293449163e-01   0.000000000000e+00   2.150572538376e+00   1.034912616014e-01   0.000000000000e+00 
  2.191341638565e+00   1.054531857371e-01   0.000000000000e+00   2.232110738754e+00   1.074151024222e-01   0.000000000000e+00   2.272880077362e+00   1.093770265579e-01   0.000000000000e+00 
  2.313649177551e+00   1.113389432430e-01   0.000000000000e+00   2.354418277740e+00   1.133008599281e-01   0.000000000000e+00   2.395187377930e+00   1.152627840638e-01   0.000000000000e+00 
  2.435956478119e+00   1.172247007489e-01   0.000000000000e+00   2.476725816727e+00   1.191866248846e-01   0.000000000000e+00   2.517494916916e+00   1.211485415697e-01   0.000000000000e+00 
[...]
CELL_DATA 2500
SCALARS Q float
LOOKUP_TABLE default
  0.000000000000e+00   0.000000000000e+00   0.000000000000e+00   0.000000000000e+00   0.000000000000e+00   0.000000000000e+00   0.000000000000e+00   0.000000000000e+00   0.000000000000e+00 
  0.000000000000e+00   0.000000000000e+00   0.000000000000e+00   0.000000000000e+00   0.000000000000e+00   0.000000000000e+00   0.000000000000e+00   0.000000000000e+00   0.000000000000e+00 
  0.000000000000e+00   0.000000000000e+00   0.000000000000e+00   0.000000000000e+00   0.000000000000e+00   0.000000000000e+00   0.000000000000e+00   0.000000000000e+00   0.000000000000e+00 
  0.000000000000e+00   0.000000000000e+00   0.000000000000e+00   0.000000000000e+00   0.000000000000e+00   0.000000000000e+00   0.000000000000e+00   0.000000000000e+00   0.000000000000e+00 
  0.000000000000e+00   0.000000000000e+00   0.000000000000e+00   0.000000000000e+00   0.000000000000e+00   0.000000000000e+00   0.000000000000e+00   0.000000000000e+00   0.000000000000e+00 
  0.000000000000e+00   0.000000000000e+00   0.000000000000e+00   0.000000000000e+00   0.000000000000e+00   0.000000000000e+00   0.000000000000e+00   0.000000000000e+00   0.000000000000e+00 
  0.000000000000e+00   0.000000000000e+00   0.000000000000e+00   0.000000000000e+00   0.000000000000e+00   0.000000000000e+00   0.000000000000e+00   0.000000000000e+00   0.000000000000e+00 
  0.000000000000e+00   0.000000000000e+00   0.000000000000e+00   0.000000000000e+00   0.000000000000e+00   0.000000000000e+00   0.000000000000e+00   0.000000000000e+00   0.000000000000e+00 
  0.000000000000e+00   0.000000000000e+00   0.000000000000e+00   0.000000000000e+00   0.000000000000e+00   0.000000000000e+00   0.000000000000e+00   0.000000000000e+00   0.000000000000e+00 
  0.000000000000e+00   0.000000000000e+00   0.000000000000e+00   0.000000000000e+00   0.000000000000e+00   0.000000000000e+00   0.000000000000e+00   0.000000000000e+00   0.000000000000e+00 
  0.000000000000e+00   0.000000000000e+00   0.000000000000e+00   0.000000000000e+00   0.000000000000e+00   0.000000000000e+00   0.000000000000e+00   0.000000000000e+00   0.000000000000e+00 
  0.000000000000e+00   0.000000000000e+00   0.000000000000e+00   0.000000000000e+00   0.000000000000e+00   0.000000000000e+00   0.000000000000e+00   0.000000000000e+00   0.000000000000e+00 
  0.000000000000e+00   0.000000000000e+00   0.000000000000e+00   0.000000000000e+00   0.000000000000e+00   0.000000000000e+00   0.000000000000e+00   0.000000000000e+00   0.000000000000e+00 
  0.000000000000e+00   0.000000000000e+00   0.000000000000e+00   0.000000000000e+00   0.000000000000e+00   0.000000000000e+00   0.000000000000e+00   0.000000000000e+00   0.000000000000e+00 
  0.000000000000e+00   0.000000000000e+00   0.000000000000e+00   0.000000000000e+00   0.000000000000e+00   0.000000000000e+00   0.000000000000e+00   0.000000000000e+00   0.000000000000e+00 
  0.000000000000e+00   0.000000000000e+00   0.000000000000e+00   0.000000000000e+00   0.000000000000e+00   0.000000000000e+00   0.000000000000e+00   0.000000000000e+00   0.000000000000e+00 
  0.000000000000e+00   0.000000000000e+00   0.000000000000e+00   0.000000000000e+00   0.000000000000e+00   0.000000000000e+00   0.000000000000e+00   0.000000000000e+00   0.000000000000e+00 
  0.000000000000e+00   0.000000000000e+00   0.000000000000e+00   0.000000000000e+00   0.000000000000e+00   0.000000000000e+00   0.000000000000e+00   0.000000000000e+00   0.000000000000e+00 
  0.000000000000e+00   0.000000000000e+00   0.000000000000e+00   0.000000000000e+00   0.000000000000e+00   0.000000000000e+00   0.000000000000e+00   0.000000000000e+00   0.000000000000e+00 
  0.000000000000e+00   0.000000000000e+00   0.000000000000e+00   0.000000000000e+00   0.000000000000e+00   0.000000000000e+00   0.000000000000e+00   0.000000000000e+00   0.000000000000e+00 
  0.000000000000e+00   0.000000000000e+00   0.000000000000e+00   0.000000000000e+00   0.000000000000e+00   0.000000000000e+00   0.000000000000e+00   0.000000000000e+00   0.000000000000e+00 
  0.000000000000e+00   0.000000000000e+00   0.000000000000e+00   0.000000000000e+00   0.000000000000e+00   0.000000000000e+00   0.000000000000e+00   0.000000000000e+00   0.000000000000e+00 
  0.000000000000e+00   0.000000000000e+00   0.000000000000e+00   0.000000000000e+00   0.000000000000e+00   0.000000000000e+00   0.000000000000e+00   0.000000000000e+00   0.000000000000e+00 
  0.000000000000e+00   0.000000000000e+00   0.000000000000e+00   0.000000000000e+00   0.000000000000e+00   0.000000000000e+00   0.000000000000e+00   0.000000000000e+00   0.000000000000e+00 
  0.000000000000e+00   0.000000000000e+00   0.000000000000e+00   0.000000000000e+00   0.000000000000e+00   0.000000000000e+00   0.000000000000e+00   0.000000000000e+00   0.000000000000e+00 
  0.000000000000e+00   0.000000000000e+00   0.000000000000e+00   0.000000000000e+00   0.000000000000e+00   0.000000000000e+00   0.000000000000e+00   0.000000000000e+00   0.000000000000e+00 
  0.000000000000e+00   0.000000000000e+00   0.000000000000e+00   0.000000000000e+00   0.000000000000e+00   0.000000000000e+00   0.000000000000e+00   0.000000000000e+00   0.000000000000e+00 
  0.000000000000e+00   0.000000000000e+00   0.000000000000e+00   0.000000000000e+00   0.000000000000e+00   0.000000000000e+00   0.000000000000e+00   0.000000000000e+00   0.000000000000e+00 
  0.000000000000e+00   0.000000000000e+00   0.000000000000e+00   0.000000000000e+00   0.000000000000e+00   0.000000000000e+00   0.000000000000e+00   0.000000000000e+00   0.000000000000e+00 
  0.000000000000e+00   0.000000000000e+00   0.000000000000e+00   0.000000000000e+00   0.000000000000e+00   0.000000000000e+00   0.000000000000e+00   0.000000000000e+00   0.000000000000e+00 
  0.000000000000e+00   0.000000000000e+00   0.000000000000e+00   0.000000000000e+00   0.000000000000e+00   0.000000000000e+00   0.000000000000e+00   0.000000000000e+00   0.000000000000e+00 
  0.000000000000e+00   0.000000000000e+00   0.000000000000e+00   0.000000000000e+00   0.000000000000e+00   0.000000000000e+00   0.000000000000e+00   0.000000000000e+00   0.000000000000e+00 
  0.000000000000e+00   0.000000000000e+00   0.000000000000e+00   0.000000000000e+00   0.000000000000e+00   0.000000000000e+00   0.000000000000e+00   0.000000000000e+00   0.000000000000e+00 
  0.000000000000e+00   0.000000000000e+00   0.000000000000e+00   0.000000000000e+00   0.000000000000e+00   0.000000000000e+00   0.000000000000e+00   0.000000000000e+00   0.000000000000e+00 
  0.000000000000e+00   0.000000000000e+00   0.000000000000e+00   0.000000000000e+00   0.000000000000e+00   0.000000000000e+00   0.000000000000e+00   0.000000000000e+00   0.000000000000e+00 
  0.000000000000e+00   0.000000000000e+00   0.000000000000e+00   0.000000000000e+00   0.000000000000e+00   0.000000000000e+00   0.000000000000e+00   0.000000000000e+00   0.000000000000e+00 
  0.000000000000e+00   0.000000000000e+00   0.000000000000e+00   0.000000000000e+00   0.000000000000e+00   0.000000000000e+00   0.000000000000e+00   0.000000000000e+00   0.000000000000e+00 
  0.000000000000e+00   0.000000000000e+00   0.000000000000e+00   0.000000000000e+00   0.000000000000e+00   0.000000000000e+00   0.000000000000e+00   0.000000000000e+00   0.000000000000e+00 
  0.000000000000e+00   0.000000000000e+00   0.000000000000e+00   0.000000000000e+00   0.000000000000e+00   0.000000000000e+00   0.000000000000e+00   0.000000000000e+00   0.000000000000e+00 
  0.000000000000e+00   0.000000000000e+00   0.000000000000e+00   0.000000000000e+00   0.000000000000e+00   0.000000000000e+00   0.000000000000e+00   0.000000000000e+00   0.000000000000e+00 
  0.000000000000e+00   0.000000000000e+00   0.000000000000e+00   0.000000000000e+00   0.000000000000e+00   0.000000000000e+00   0.000000000000e+00   0.000000000000e+00   0.000000000000e+00 
  0.000000000000e+00   0.000000000000e+00   0.000000000000e+00   0.000000000000e+00   0.000000000000e+00   0.000000000000e+00   0.000000000000e+00   0.000000000000e+00   0.000000000000e+00 
  0.000000000000e+00   0.000000000000e+00   0.000000000000e+00   0.000000000000e+00   0.000000000000e+00   0.000000000000e+00   0.000000000000e+00   0.000000000000e+00   0.000000000000e+00 
  0.000000000000e+00   0.000000000000e+00   0.000000000000e+00   0.000000000000e+00   0.000000000000e+00   0.000000000000e+00   0.000000000000e+00   0.000000000000e+00   0.000000000000e+00 
  0.000000000000e+00   0.000000000000e+00   0.000000000000e+00   0.000000000000e+00   0.000000000000e+00   0.000000000000e+00   0.000000000000e+00   0.000000000000e+00   0.000000000000e+00 
  0.000000000000e+00   0.000000000000e+00   0.000000000000e+00   0.000000000000e+00   0.000000000000e+00   0.000000000000e+00   0.000000000000e+00   0.000000000000e+00   0.000000000000e+00 
  0.000000000000e+00   0.000000000000e+00   0.000000000000e+00   0.000000000000e+00   0.000000000000e+00   0.000000000000e+00   0.000000000000e+00   0.000000000000e+00   0.000000000000e+00 
  0.000000000000e+00   0.000000000000e+00   0.000000000000e+00   0.000000000000e+00   0.000000000000e+00   0.000000000000e+00   0.000000000000e+00   0.000000000000e+00   0.000000000000e+00 
  0.000000000000e+00   0.000000000000e+00   0.000000000000e+00   0.000000000000e+00   0.000000000000e+00   0.000000000000e+00   0.000000000000e+00   0.000000000000e+00   0.000000000000e+00 
  0.000000000000e+00   0.000000000000e+00   0.000000000000e+00   0.000000000000e+00   0.000000000000e+00   0.000000000000e+00   0.000000000000e+00   0.000000000000e+00   0.000000000000e+00 
  0.000000000000e+00   0.000000000000e+00   0.000000000000e+00   0.000000000000e+00   0.000000000000e+00   0.000000000000e+00   0.000000000000e+00   0.000000000000e+00   0.000000000000e+00 
  0.000000000000e+00   0.000000000000e+00   0.000000000000e+00   0.000000000000e+00   0.000000000000e+00   0.000000000000e+00   0.000000000000e+00   0.000000000000e+00   0.000000000000e+00 
  0.000000000000e+00   0.000000000000e+00   0.000000000000e+00   0.000000000000e+00   0.000000000000e+00   0.000000000000e+00   0.000000000000e+00   0.000000000000e+00   0.000000000000e+00 
  0.000000000000e+00   0.000000000000e+00   0.000000000000e+00   0.000000000000e+00   0.000000000000e+00   0.000000000000e+00   0.000000000000e+00   0.000000000000e+00   0.000000000000e+00 
  0.000000000000e+00   0.000000000000e+00   0.000000000000e+00   0.000000000000e+00   0.000000000000e+00   0.000000000000e+00   0.000000000000e+00   0.000000000000e+00   0.000000000000e+00 
  0.000000000000e+00   0.000000000000e+00   0.000000000000e+00   0.000000000000e+00   0.000000000000e+00   0.000000000000e+00   0.000000000000e+00   0.000000000000e+00   0.000000000000e+00 
  0.000000000000e+00   0.000000000000e+00   0.000000000000e+00   0.000000000000e+00   0.000000000000e+00   0.000000000000e+00   0.000000000000e+00   0.000000000000e+00   0.000000000000e+00 
  0.000000000000e+00   0.000000000000e+00   0.000000000000e+00   0.000000000000e+00   0.000000000000e+00   0.000000000000e+00   0.000000000000e+00   0.000000000000e+00   0.000000000000e+00 
  0.000000000000e+00   0.000000000000e+00   0.000000000000e+00   0.000000000000e+00   0.000000000000e+00   0.000000000000e+00   0.000000000000e+00   0.000000000000e+00   0.000000000000e+00 
  0.000000000000e+00   0.000000000000e+00   0.000000000000e+00   0.000000000000e+00   0.000000000000e+00   0.000000000000e+00   0.000000000000e+00   0.000000000000e+00   0.000000000000e+00 
  0.000000000000e+00   0.000000000000e+00   0.000000000000e+00   0.000000000000e+00   0.000000000000e+00   0.000000000000e+00   0.000000000000e+00   0.000000000000e+00   0.000000000000e+00 
  0.000000000000e+00   0.000000000000e+00   0.000000000000e+00   0.000000000000e+00   0.000000000000e+00   0.000000000000e+00   0.000000000000e+00   0.000000000000e+00   0.000000000000e+00 
  0.000000000000e+00   0.000000000000e+00   0.000000000000e+00   0.000000000000e+00   0.000000000000e+00   0.000000000000e+00   0.000000000000e+00   0.000000000000e+00   0.000000000000e+00 
  0.000000000000e+00   0.000000000000e+00   0.000000000000e+00   0.000000000000e+00   0.000000000000e+00   0.000000000000e+00   0.000000000000e+00   0.000000000000e+00   0.000000000000e+00 
  0.000000000000e+00   0.000000000000e+00   0.000000000000e+00   0.000000000000e+00   0.000000000000e+00   0.000000000000e+00   0.000000000000e+00   0.000000000000e+00   0.000000000000e+00 
  0.000000000000e+00   0.000000000000e+00   0.000000000000e+00   0.000000000000e+00   0.000000000000e+00   0.000000000000e+00   0.000000000000e+00   0.000000000000e+00   0.000000000000e+00 
  0.000000000000e+00   0.000000000000e+00   0.000000000000e+00   0.000000000000e+00   0.000000000000e+00   0.000000000000e+00   0.000000000000e+00   0.000000000000e+00   0.000000000000e+00 
  0.000000000000e+00   0.000000000000e+00   0.000000000000e+00   0.000000000000e+00   0.000000000000e+00   0.000000000000e+00   0.000000000000e+00   0.000000000000e+00   0.000000000000e+00 
  0.000000000000e+00   0.000000000000e+00   0.000000000000e+00   0.000000000000e+00   0.000000000000e+00   0.000000000000e+00   0.000000000000e+00   0.000000000000e+00   0.000000000000e+00 
  0.000000000000e+00   0.000000000000e+00   0.000000000000e+00   0.000000000000e+00   0.000000000000e+00   0.000000000000e+00   0.000000000000e+00   0.000000000000e+00   0.000000000000e+00 
  0.000000000000e+00   0.000000000000e+00   0.000000000000e+00   0.000000000000e+00   0.000000000000e+00   0.000000000000e+00   0.000000000000e+00   0.000000000000e+00   0.000000000000e+00 
  0.000000000000e+00   0.000000000000e+00   0.000000000000e+00   0.000000000000e+00   0.000000000000e+00   0.000000000000e+00   0.000000000000e+00   0.000000000000e+00   0.000000000000e+00 
  0.000000000000e+00   0.000000000000e+00   0.000000000000e+00   0.000000000000e+00   0.000000000000e+00   0.000000000000e+00   0.000000000000e+00   0.000000000000e+00   0.000000000000e+00 
  0.000000000000e+00   0.000000000000e+00   0.000000000000e+00   0.000000000000e+00   0.000000000000e+00   0.000000000000e+00   0.000000000000e+00   0.000000000000e+00   0.000000000000e+00 
  0.000000000000e+00   0.000000000000e+00   0.000000000000e+00   0.000000000000e+00   0.000000000000e+00   0.000000000000e+00   0.000000000000e+00   0.000000000000e+00   0.000000000000e+00 
  0.000000000000e+00   0.000000000000e+00   0.000000000000e+00   0.000000000000e+00   0.000000000000e+00   0.000000000000e+00   0.000000000000e+00   0.000000000000e+00   0.000000000000e+00 
  0.000000000000e+00   0.000000000000e+00   0.000000000000e+00   0.000000000000e+00   0.000000000000e+00   0.000000000000e+00   0.000000000000e+00   0.000000000000e+00   0.000000000000e+00 
  0.000000000000e+00   0.000000000000e+00   0.000000000000e+00   0.000000000000e+00   0.000000000000e+00   0.000000000000e+00   0.000000000000e+00   0.000000000000e+00   0.000000000000e+00 
  0.000000000000e+00   0.000000000000e+00   0.000000000000e+00   0.000000000000e+00   0.000000000000e+00   0.000000000000e+00   0.000000000000e+00   0.000000000000e+00   0.000000000000e+00 
  0.000000000000e+00   0.000000000000e+00   0.000000000000e+00   0.000000000000e+00   0.000000000000e+00   0.000000000000e+00   0.000000000000e+00   0.000000000000e+00   0.000000000000e+00 
  0.000000000000e+00   0.000000000000e+00   0.000000000000e+00   0.000000000000e+00   0.000000000000e+00   0.000000000000e+00   0.000000000000e+00   0.000000000000e+00   0.000000000000e+00 
  0.000000000000e+00   0.000000000000e+00   0.000000000000e+00   0.000000000000e+00   0.000000000000e+00   0.000000000000e+00   0.000000000000e+00   0.000000000000e+00   0.000000000000e+00 
  0.000000000000e+00   0.000000000000e+00   0.000000000000e+00   0.000000000000e+00   0.000000000000e+00   0.000000000000e+00   0.000000000000e+00   0.000000000000e+00   0.000000000000e+00 
  0.000000000000e+00   0.000000000000e+00   0.000000000000e+00   0.000000000000e+00   0.000000000000e+00   0.000000000000e+00   0.000000000000e+00   0.000000000000e+00   0.000000000000e+00 
  0.000000000000e+00   0.000000000000e+00   0.000000000000e+00   0.000000000000e+00   0.000000000000e+00   0.000000000000e+00   0.000000000000e+00   0.000000000000e+00   0.000000000000e+00 
  0.000000000000e+00   0.000000000000e+00   0.000000000000e+00   0.000000000000e+00   0.000000000000e+00   0.000000000000e+00   0.000000000000e+00   0.000000000000e+00   0.000000000000e+00 
  0.000000000000e+00   0.000000000000e+00   0.000000000000e+00   0.000000000000e+00   0.000000000000e+00   0.000000000000e+00   0.000000000000e+00   0.000000000000e+00   0.000000000000e+00 
  0.000000000000e+00   0.000000000000e+00   0.000000000000e+00   0.000000000000e+00   0.000000000000e+00   0.000000000000e+00   0.000000000000e+00   0.000000000000e+00   0.000000000000e+00 
  0.000000000000e+00   0.000000000000e+00   0.000000000000e+00   0.000000000000e+00   0.000000000000e+00   0.000000000000e+00   0.000000000000e+00   0.000000000000e+00   0.000000000000e+00 
  0.000000000000e+00   0.000000000000e+00   0.000000000000e+00   0.000000000000e+00   0.000000000000e+00   0.000000000000e+00   0.000000000000e+00   0.000000000000e+00   0.000000000000e+00 
  0.000000000000e+00   0.000000000000e+00   0.000000000000e+00   0.000000000000e+00   0.000000000000e+00   0.000000000000e+00   0.000000000000e+00   0.000000000000e+00   0.000000000000e+00 
  0.000000000000e+00   0.000000000000e+00   0.000000000000e+00   0.000000000000e+00   0.000000000000e+00   0.000000000000e+00   0.000000000000e+00   0.000000000000e+00   0.000000000000e+00 
  0.000000000000e+00   0.000000000000e+00   0.000000000000e+00   0.000000000000e+00   0.000000000000e+00   0.000000000000e+00   0.000000000000e+00   0.000000000000e+00   0.000000000000e+00 
  0.000000000000e+00   0.000000000000e+00   0.000000000000e+00   0.000000000000e+00   0.000000000000e+00   0.000000000000e+00   0.000000000000e+00   0.000000000000e+00   0.000000000000e+00 
  0.000000000000e+00   0.000000000000e+00   0.000000000000e+00   0.000000000000e+00   0.000000000000e+00   0.000000000000e+00   0.000000000000e+00   0.000000000000e+00   0.000000000000e+00 
  0.000000000000e+00   0.000000000000e+00   0.000000000000e+00   0.000000000000e+00   0.000000000000e+00   0.000000000000e+00   0.000000000000e+00   0.000000000000e+00   0.000000000000e+00 
  0.000000000000e+00   0.000000000000e+00   0.000000000000e+00   0.000000000000e+00   0.000000000000e+00   0.000000000000e+00   0.000000000000e+00   0.000000000000e+00   0.000000000000e+00 
  0.000000000000e+00   0.000000000000e+00   0.000000000000e+00   0.000000000000e+00   0.000000000000e+00   0.000000000000e+00   0.000000000000e+00   0.000000000000e+00   0.000000000000e+00 
  0.000000000000e+00   0.000000000000e+00   0.000000000000e+00   0.000000000000e+00   0.000000000000e+00   0.000000000000e+00   0.000000000000e+00   0.000000000000e+00   0.000000000000e+00 
  0.000000000000e+00   0.000000000000e+00   0.000000000000e+00   0.000000000000e+00   0.000000000000e+00   0.000000000000e+00   0.000000000000e+00   0.000000000000e+00   0.000000000000e+00 
  0.000000000000e+00   0.000000000000e+00   0.000000000000e+00   0.000000000000e+00   0.000000000000e+00   0.000000000000e+00   0.000000000000e+00   0.000000000000e+00   0.000000000000e+00 
  0.000000000000e+00   0.000000000000e+00   0.000000000000e+00   0.000000000000e+00   0.000000000000e+00   0.000000000000e+00   0.000000000000e+00   0.000000000000e+00   0.000000000000e+00 
  0.000000000000e+00   0.000000000000e+00   0.000000000000e+00   0.000000000000e+00   0.000000000000e+00   0.000000000000e+00   0.000000000000e+00   0.000000000000e+00   0.000000000000e+00 
  0.000000000000e+00   0.000000000000e+00   0.000000000000e+00   0.000000000000e+00   0.000000000000e+00   0.000000000000e+00   0.000000000000e+00   0.000000000000e+00   0.000000000000e+00 